BEGIN_CFG
 Size
    164
 AtomData:  id type       cartes_x      cartes_y      cartes_z
             1    0       2.198417      1.269257      0.000000
             2    0       0.000000      2.538513      0.000000
             3    0       2.198417      3.807770      0.000000
             4    0       1.465611      0.000000      2.072687
             5    0       3.664028      1.269257      2.072687
             6    0       1.465611      2.538513      2.072687
             7    0       3.664028      3.807770      2.072687
             8    0       5.862445      2.538513      2.072687
             9    0       0.000000      5.077027      0.000000
            10    0       2.198417      6.346283      0.000000
            11    0       0.000000      7.615540      0.000000
            12    0       1.465611      5.077027      2.072687
            13    0       3.664028      6.346283      2.072687
            14    0       1.465611      7.615540      2.072687
            15    0       4.396834      5.077027      0.000000
            16    0       5.862445      5.077027      2.072687
            17    0       5.862445      7.615540      2.072687
            18    0       2.198417      8.884797      0.000000
            19    0       3.664028      8.884797      2.072687
            20    0       1.465611     10.154053      2.072687
            21    0       2.931223      0.000000      4.145375
            22    0       0.732806      1.269257      4.145375
            23    0       2.931223      2.538513      4.145375
            24    0       0.732806      3.807770      4.145375
            25    0       0.000000      0.000000      6.218062
            26    0       2.198417      1.269257      6.218062
            27    0       0.000000      2.538513      6.218062
            28    0       2.198417      3.807770      6.218062
            29    0       5.129640      1.269257      4.145375
            30    0       5.129640      3.807770      4.145375
            31    0       4.396834      0.000000      6.218062
            32    0       6.595251      1.269257      6.218062
            33    0       4.396834      2.538513      6.218062
            34    0       6.595251      3.807770      6.218062
            35    0       2.931223      5.077027      4.145375
            36    0       0.732806      6.346283      4.145375
            37    0       2.931223      7.615540      4.145375
            38    0       0.000000      5.077027      6.218062
            39    0       2.198417      6.346283      6.218062
            40    0       0.000000      7.615540      6.218062
            41    0       7.328057      5.077027      4.145375
            42    0       5.129640      6.346283      4.145375
            43    0       4.396834      5.077027      6.218062
            44    0       6.595251      6.346283      6.218062
            45    0       4.396834      7.615540      6.218062
            46    0       0.732806      8.884797      4.145375
            47    0       2.931223     10.154053      4.145375
            48    0       0.732806     11.423310      4.145375
            49    0       2.198417      8.884797      6.218062
            50    0       0.000000     10.154053      6.218062
            51    0       2.198417     11.423310      6.218062
            52    0       0.000000     12.692567      6.218062
            53    0       5.129640      8.884797      4.145375
            54    0       6.595251      8.884797      6.218062
            55    0       4.396834     10.154053      6.218062
            56    0       1.465611      0.000000      8.290750
            57    0       3.664028      1.269257      8.290750
            58    0       1.465611      2.538513      8.290750
            59    0       3.664028      3.807770      8.290750
            60    0       2.931223      0.000000     10.363437
            61    0       0.732806      1.269257     10.363437
            62    0       2.931223      2.538513     10.363437
            63    0       0.732806      3.807770     10.363437
            64    0       5.862445      2.538513      8.290750
            65    0       5.129640      1.269257     10.363437
            66    0       5.129640      3.807770     10.363437
            67    0       1.465611      5.077027      8.290750
            68    0       3.664028      6.346283      8.290750
            69    0       1.465611      7.615540      8.290750
            70    0       2.931223      5.077027     10.363437
            71    0       0.732806      6.346283     10.363437
            72    0       2.931223      7.615540     10.363437
            73    0       5.862445      5.077027      8.290750
            74    0       5.862445      7.615540      8.290750
            75    0       5.129640      6.346283     10.363437
            76    0       3.664028      8.884797      8.290750
            77    0       1.465611     10.154053      8.290750
            78    0       3.664028     11.423310      8.290750
            79    0       0.732806      8.884797     10.363437
            80    0       2.931223     10.154053     10.363437
            81    0       0.732806     11.423310     10.363437
            82    0       5.129640      8.884797     10.363437
            83    0      -5.129640      1.269257      2.072687
            84    0      -5.129640      3.807770      2.072687
            85    0      -2.198417      1.269257      0.000000
            86    0      -2.198417      3.807770      0.000000
            87    0      -2.931223      0.000000      2.072687
            88    0      -0.732806      1.269257      2.072687
            89    0      -2.931223      2.538513      2.072687
            90    0      -0.732806      3.807770      2.072687
            91    0      -5.129640      6.346283      2.072687
            92    0      -4.396834      5.077027      0.000000
            93    0      -2.198417      6.346283      0.000000
            94    0      -2.931223      5.077027      2.072687
            95    0      -0.732806      6.346283      2.072687
            96    0      -2.931223      7.615540      2.072687
            97    0      -5.129640      8.884797      2.072687
            98    0      -2.198417      8.884797      0.000000
            99    0      -0.732806      8.884797      2.072687
           100    0      -2.931223     10.154053      2.072687
           101    0      -0.732806     11.423310      2.072687
           102    0      -5.862445      2.538513      4.145375
           103    0      -6.595251      1.269257      6.218062
           104    0      -6.595251      3.807770      6.218062
           105    0      -1.465611      0.000000      4.145375
           106    0      -3.664028      1.269257      4.145375
           107    0      -1.465611      2.538513      4.145375
           108    0      -3.664028      3.807770      4.145375
           109    0      -4.396834      0.000000      6.218062
           110    0      -2.198417      1.269257      6.218062
           111    0      -4.396834      2.538513      6.218062
           112    0      -2.198417      3.807770      6.218062
           113    0      -5.862445      5.077027      4.145375
           114    0      -5.862445      7.615540      4.145375
           115    0      -6.595251      6.346283      6.218062
           116    0      -1.465611      5.077027      4.145375
           117    0      -3.664028      6.346283      4.145375
           118    0      -1.465611      7.615540      4.145375
           119    0      -4.396834      5.077027      6.218062
           120    0      -2.198417      6.346283      6.218062
           121    0      -4.396834      7.615540      6.218062
           122    0      -6.595251      8.884797      6.218062
           123    0      -3.664028      8.884797      4.145375
           124    0      -1.465611     10.154053      4.145375
           125    0      -3.664028     11.423310      4.145375
           126    0      -2.198417      8.884797      6.218062
           127    0      -4.396834     10.154053      6.218062
           128    0      -2.198417     11.423310      6.218062
           129    0      -5.129640      1.269257      8.290750
           130    0      -5.129640      3.807770      8.290750
           131    0      -5.862445      2.538513     10.363437
           132    0      -2.931223      0.000000      8.290750
           133    0      -0.732806      1.269257      8.290750
           134    0      -2.931223      2.538513      8.290750
           135    0      -0.732806      3.807770      8.290750
           136    0      -1.465611      0.000000     10.363437
           137    0      -3.664028      1.269257     10.363437
           138    0      -1.465611      2.538513     10.363437
           139    0      -3.664028      3.807770     10.363437
           140    0      -7.328057      5.077027      8.290750
           141    0      -5.129640      6.346283      8.290750
           142    0      -5.862445      5.077027     10.363437
           143    0      -5.862445      7.615540     10.363437
           144    0      -2.931223      5.077027      8.290750
           145    0      -0.732806      6.346283      8.290750
           146    0      -2.931223      7.615540      8.290750
           147    0      -1.465611      5.077027     10.363437
           148    0      -3.664028      6.346283     10.363437
           149    0      -1.465611      7.615540     10.363437
           150    0      -5.129640      8.884797      8.290750
           151    0      -0.732806      8.884797      8.290750
           152    0      -2.931223     10.154053      8.290750
           153    0      -0.732806     11.423310      8.290750
           154    0      -3.664028      8.884797     10.363437
           155    0      -1.465611     10.154053     10.363437
           156    0       0.732806     -1.269257      4.145375
           157    0       0.000000     -2.538513      6.218062
           158    0       2.198417     -1.269257      6.218062
           159    0       3.664028     -1.269257      8.290750
           160    0       0.732806     -1.269257     10.363437
           161    0      -0.732806     -1.269257      2.072687
           162    0      -3.664028     -1.269257      4.145375
           163    0      -2.198417     -1.269257      6.218062
           164    0      -0.732806     -1.269257      8.290750
 Feature   Neighborhood_information:	164 first atoms are inside the neighborhood within the cut-off radius of 8.000000 angstrom, the rest of the atoms were deleted
END_CFG

BEGIN_CFG
 Size
    1
 AtomData:  id type       cartes_x      cartes_y      cartes_z
             1    0      38.195695     29.471571     38.000000
 Feature   Neighborhood_information:	1 first atoms are inside the neighborhood within the cut-off radius of 8.000000 angstrom, the rest of the atoms were deleted
END_CFG

